86
i =      160, E =      -856.2795154753
C -0.1648176832 -0.0358467596 -0.6570366296
C 1.0769065755 0.677448843 -0.6510259055
C 2.306285305 -0.0314719778 -0.6528935826
C 3.5487719438 0.6972465952 -0.6628763949
C 4.7764106582 0.0053236368 -0.6604351023
C 6.0325731291 0.7569950818 -0.6791781044
C 7.2346874921 0.0239343214 -0.6773350959
C 8.4747462707 0.7464787923 -0.6603964642
C 9.7031223997 0.0048698776 -0.6616832360
C 10.9579326426 0.6810404305 -0.6681506637
C 12.1799383708 -0.0299848591 -0.6702524227
C 13.4331698818 0.6698931901 -0.6499515057
C 1.0740834877 2.1096355084 -0.6477298201
C 2.3185359257 2.8322922051 -0.6633761252
C 3.550506227 2.1368545904 -0.6749762470
C 4.7930758217 2.8710408798 -0.6914104178
C 6.0599047982 2.2216070684 -0.6998907799
C 7.3266514474 2.9984896215 -0.6850819929
C 8.4999666804 2.177691542 -0.6032866712
C 9.7725245397 2.8183626623 -0.4347115612
C 10.976163673 2.1064234776 -0.5844540211
C 12.2149903767 2.8003003962 -0.5270944344
C 13.4353817898 2.0980149938 -0.6011917108
C 14.6710438451 2.8139431867 -0.6220300019
C 2.2935636065 4.2625140795 -0.6632182194
C 3.5206937477 4.9841995696 -0.6826743616
C 4.7589280174 4.288654218 -0.6888637263
C 5.9923046665 5.0318207448 -0.6862719749
C 7.2801426449 4.5015912074 -0.6787846459
C 9.8233712083 4.139090444 0.0681999921
C 10.9711070292 4.894233272 -0.2661566733
C 12.1951256988 4.2212605658 -0.4696058663
C 13.4212359702 4.950671384 -0.5494942250
C 14.6491576653 4.249588814 -0.6122972160
C 15.8752226311 4.9700315603 -0.6374238090
C 3.4779755735 6.4157844572 -0.6791565712
C 4.7061690308 7.1372035565 -0.6789057310
C 5.9054290483 6.4450663167 -0.6817945286
C 7.1724501217 7.0760868451 -0.6544352765
C 8.2743416367 6.225557218 -0.6238301858
C 9.5962693646 6.9326653577 -0.5322000011
C 10.8906124253 6.324583257 -0.3941544566
C 12.119817184 7.064854437 -0.4890940739
C 13.3790191281 6.375951946 -0.5299428207
C 14.6119840648 7.1004825104 -0.5947876396
C 15.8421425024 6.3975103601 -0.6363818530
C 17.0812163191 7.1195255107 -0.6627858229
C 4.7176860857 8.5616712379 -0.6718248623
C 5.9786724245 9.2405620248 -0.6656353832
C 7.199940048 8.5169118853 -0.6459289398
C 8.4442525347 9.1964607735 -0.6297634490
C 9.6396750947 8.4224964955 -0.5839306370
C 10.8941945228 9.1788888608 -0.5814509900
C 12.1279278925 8.5006173169 -0.5624009894
C 13.3776902508 9.2360691137 -0.6062155100
C 14.6062114169 8.5395085499 -0.6148349301
C 15.8477370361 9.2604936353 -0.6459064497
C 17.0772104462 8.5517162198 -0.6600874160
C 18.3198681936 9.2632886013 -0.6692143840
C 5.990422299 10.6649425021 -0.6627574389
C 7.2410973762 11.3589634513 -0.6589484691
C 8.4601152389 10.6406376847 -0.6459819937
C 9.7060743646 11.3617610688 -0.6416150845
C 10.9178145815 10.6430723617 -0.6207236197
C 12.1653698514 11.3866876963 -0.6375273167
C 13.3894333825 10.6782899995 -0.6377042574
C 14.6324399643 11.4086124505 -0.6612288091
C 15.8519871484 10.6956332326 -0.6577828508
C 17.1019119764 11.4091374125 -0.6662173556
C 18.3261897487 10.6969248036 -0.6684830794
C 19.5783551275 11.3824170895 -0.6672601163
Ti 6.5622204434 4.6679602975 5.3363559048
O 8.1025074718 5.6906198472 6.0099751427
Ti 9.3443784379 5.2580098152 4.7594820899
O 10.5647051273 4.009627285 5.1033892305
O 9.2680749425 5.7857864869 2.9510735499
Ti 10.4155926178 2.3334130233 4.0791759681
O 11.725143759 1.3625118188 3.9014256315
O 8.7365188076 1.3681903359 4.1782980830
Ti 7.2716682678 2.3252432099 3.7863820213
O 6.072945203 2.8060576144 5.0836108850
Ti 8.7504583607 4.2435826534 2.0290527184
O 10.1013061052 3.2038299731 2.4027020131
O 5.5614001959 5.6139952789 4.4498385899
O 7.2807146937 2.9727026612 2.0492277648
O 8.0496515719 4.0130317049 4.1605561180
