80
i =      154, E =      -675.4331277685
C 0.1355774689 -0.1009463009 -0.3002194153
C 1.3667459259 0.6128685016 -0.2893312199
C 2.6068926946 -0.1009395016 -0.2596091490
C 3.8396987669 0.6282050391 -0.2247963429
C 5.0707072158 -0.0650795829 -0.1827963854
C 6.3235082521 0.6907150127 -0.1374119972
C 7.5327977277 -0.0458354998 -0.1225418928
C 8.7616734395 0.6716100503 -0.0574458654
C 9.99940056 -0.0687004065 -0.1308117312
C 11.2443454464 0.6139866746 -0.1960272496
C 12.4716800083 -0.0944061921 -0.2698961538
C 13.7256009939 0.6097970183 -0.2915048496
C 1.3720674154 2.0418461847 -0.2894700238
C 2.6120868854 2.7710820561 -0.2580652496
C 3.8512621321 2.070255735 -0.2264579717
C 5.079976397 2.8026682357 -0.1850973488
C 6.359079911 2.1437048941 -0.1362514909
C 7.6157167258 2.9093819027 -0.0631594997
C 8.7898771105 2.1021914595 0.0670572970
C 10.0742870775 2.7309062246 0.2009052987
C 11.2725773341 2.0429399607 -0.0995941465
C 12.5075749992 2.7373329788 -0.1703073560
C 13.7372633521 2.026749538 -0.2719361470
C 14.9629030862 2.7474130808 -0.2928695343
C 2.5936439154 4.1925163664 -0.2388381850
C 3.8138210864 4.9177652425 -0.1988926743
C 5.0484605253 4.2191006079 -0.1761148051
C 6.281582853 4.9708324699 -0.1731543797
C 7.5824212936 4.4329499436 -0.1022580565
C 10.2136738672 4.0613523312 0.6470846029
C 11.3022487244 4.8336629264 0.1715809638
C 12.5086942267 4.1487257408 -0.1307031865
C 13.7196048795 4.8906532454 -0.2299114941
C 14.950997139 4.1836398823 -0.2788656638
C 16.1675463643 4.9056783851 -0.2507736666
C 3.7795385248 6.353990082 -0.1930846347
C 4.9887746442 7.0776474682 -0.1943306215
C 6.2096444455 6.3761441275 -0.1914027819
C 7.472740616 7.0169173031 -0.2981254231
C 8.5893906754 6.1725869623 -0.2884004267
C 9.9023786674 6.8871135974 -0.1656167601
C 11.1985357909 6.2708600752 0.0049741770
C 12.4238943296 7.0078402591 -0.1025367074
C 13.6849571492 6.3090907825 -0.1632642987
C 14.9076423182 7.0361016497 -0.1879851530
C 16.1409305112 6.3313916174 -0.2165170643
C 17.3734359503 7.0603688923 -0.2043848665
C 5.0120176936 8.4939682584 -0.2342681825
C 6.2730181275 9.1806794132 -0.2695866569
C 7.5026744489 8.4572253782 -0.2908881683
C 8.7386093829 9.134179048 -0.2774167691
C 9.9453889817 8.3595140699 -0.2197177934
C 11.1896272409 9.1155553279 -0.1941322939
C 12.4294728431 8.4378112343 -0.1679901437
C 13.6742075348 9.1776052396 -0.1799811507
C 14.9081431665 8.4748444624 -0.1784185635
C 16.1363206209 9.1951699427 -0.1853655184
C 17.3770289241 8.4815347594 -0.2009428809
C 18.6088039253 9.1974416544 -0.2237884909
C 6.2898938336 10.5959573602 -0.2809937429
C 7.534157447 11.2941173397 -0.2932885317
C 8.7584451554 10.5761106444 -0.2793263719
C 10.0006932248 11.3026081661 -0.2517675065
C 11.2187581356 10.5793015005 -0.2116869208
C 12.455146342 11.3202152156 -0.1867792791
C 13.69024874 10.6080973594 -0.1775453979
C 14.923475699 11.3395102354 -0.1625226086
C 16.1472786273 10.6260355263 -0.1722964502
C 17.3932303154 11.3452689011 -0.1784201363
C 18.6237787197 10.6314630581 -0.2286864050
C 19.8654809795 11.3181152443 -0.2655793552
Ti 9.4611680314 7.3871237958 3.7743890171
O 8.0849618515 7.2940922339 2.6742060430
O 10.9215538197 7.5420047595 2.7818439347
Ti 11.091610247 5.6056441181 2.5545505790
O 9.7759342767 5.6963791167 4.0712863898
O 12.4658604973 4.8933324415 3.0607754280
Ti 7.6528818262 5.5188486239 1.9475876893
O 9.4927149317 4.5713439115 1.6712015012
O 6.6275693912 4.7328842567 2.9492394404
