    75
 i =       31, E =      -500.4817077754
  C        -0.0245523613        0.0028115449       -0.0010322809
  C         1.2106899236        0.7165485793       -0.0049688986
  C         2.4448485792        0.0037089952       -0.0105132438
  C         3.6794438135        0.7167894081       -0.0186905699
  C         4.9148047729        0.0036151916       -0.0200590561
  C         6.1495662516        0.7160067291       -0.0283443682
  C         7.3839348598        0.0034469147       -0.0197658100
  C         8.6199864316        0.7161958559       -0.0177035159
  C         9.8549352379        0.0035216096       -0.0058154489
  C        11.0901268651        0.7151749951       -0.0011337016
  C        12.3261340869        0.0025660936        0.0016727999
  C        13.5607168069        0.7154288390        0.0021050664
  C         1.2107648448        2.1424721859       -0.0064941545
  C         2.4452231544        2.8555059493       -0.0185679703
  C         3.6793810670        2.1427352838       -0.0275742573
  C         4.9146917116        2.8558548084       -0.0467758002
  C         6.1482565524        2.1423485932       -0.0465158215
  C         7.3822748830        2.8544558599       -0.0569607689
  C         8.6186530118        2.1411586550       -0.0317059691
  C         9.8547670237        2.8501987656       -0.0194720819
  C        11.0903036634        2.1406571951       -0.0034816322
  C        12.3261975234        2.8548787204        0.0006908911
  C        13.5608622014        2.1425862826        0.0024369740
  C        14.7954477443        2.8559177130       -0.0010197747
  C         2.4453672633        4.2821049494       -0.0213078356
  C         3.6795364954        4.9951681839       -0.0387905900
  C         4.9144809741        4.2814948022       -0.0587087727
  C         6.1473432368        4.9936215037       -0.0794438021
  C         7.3770453311        4.2771868130       -0.0784461363
  C         8.6163455986        4.9888778744       -0.0774279051
  C         9.8562160777        4.2774871639       -0.0377850868
  C        11.0928701381        4.9953477596       -0.0228890354
  C        12.3280938861        4.2809988725       -0.0031885192
  C        13.5618663403        4.9952971161       -0.0033325651
  C        14.7956649129        4.2817762334       -0.0027113150
  C        16.0311376985        4.9953778923       -0.0092926732
  C         3.6793352898        6.4205336616       -0.0325296721
  C         4.9147608168        7.1336980994       -0.0431120407
  C         6.1467654247        6.4202463227       -0.0682599899
  C         7.3777813662        7.1375586019       -0.0622390417
  C         8.6179963147        6.4238438443       -0.0770498267
  C         9.8601650602        7.1401238749       -0.0654266754
  C        11.0935177910        6.4240597420       -0.0427710449
  C        12.3285688385        7.1369189092       -0.0220286994
  C        13.5614323439        6.4223945969       -0.0087695411
  C        14.7957940759        7.1350771127       -0.0055205399
  C        16.0309393014        6.4210079721       -0.0076670810
  C        17.2656679112        7.1338668325       -0.0138200598
  C         4.9157664897        8.5594498907       -0.0235016079
  C         6.1501852104        9.2726358728       -0.0236067628
  C         7.3840592440        8.5617608417       -0.0416405021
  C         8.6209690912        9.2734591678       -0.0367735357
  C         9.8560287228        8.5660176309       -0.0467388450
  C        11.0898393500        9.2748222259       -0.0282188114
  C        12.3258573848        8.5618502798       -0.0208390039
  C        13.5603438920        9.2734756085       -0.0119424849
  C        14.7949346759        8.5607650065       -0.0067587324
  C        16.0308655626        9.2735582616       -0.0046995899
  C        17.2654739339        8.5605032001       -0.0076478325
  C        18.5005161769        9.2727878045       -0.0088930367
  C         6.1506121685       10.6990416501       -0.0083265292
  C         7.3852177226       11.4113959856       -0.0070369802
  C         8.6207827131       10.6983499331       -0.0169721243
  C         9.8551295836       11.4114387218       -0.0138003500
  C        11.0895437723       10.6998377882       -0.0178334480
  C        12.3253851747       11.4124955507       -0.0154617783
  C        13.5598789143       10.7001898523       -0.0131167838
  C        14.7948912660       11.4123559123       -0.0117293259
  C        16.0304201618       10.6991969056       -0.0058357914
  C        17.2654182843       11.4113607831       -0.0032574760
  C        18.5001503668       10.6986572181       -0.0024920971
  C        19.7359591114       11.4112792042       -0.0013242400
 Ti         9.0058146347        5.9362543279        2.3531068722
  O         7.5945889137        5.2947893902        2.9635992264
  O         9.3080595138        7.4602240527        2.9647756679
