117
i =       42, E =     -1766.6104637246
C 0.0129692793 0.0218312185 -0.2747052664
C 1.2475714569 0.7351509763 -0.2725933146
C 2.4825576432 0.0223828887 -0.2762913610
C 3.7178946738 0.7360539421 -0.2734223296
C 4.9526276576 0.0233657122 -0.2732541960
C 6.1868719597 0.7364502291 -0.2705526178
C 7.4225683421 0.0232074927 -0.2700632682
C 8.6571146577 0.7361785767 -0.2690953022
C 9.892435502 0.0228844241 -0.2691500140
C 11.1280680017 0.7357333839 -0.2687378537
C 12.3631391724 0.0226386749 -0.2726756168
C 13.5973173264 0.7351848566 -0.2711237732
C 1.2480509258 2.1627016209 -0.2816696759
C 2.4825236103 2.8757026498 -0.2981996122
C 3.7180036545 2.1628936198 -0.2860282201
C 4.9523147268 2.8759817476 -0.3028733179
C 6.1870914691 2.163492179 -0.2869192303
C 7.4222610223 2.8775182105 -0.3069028366
C 8.6569438486 2.1637764476 -0.2854807669
C 9.8914744578 2.8758481961 -0.2974520618
C 11.1275968243 2.1627274315 -0.2796958678
C 12.3621524061 2.8754620055 -0.2903653156
C 13.5973466121 2.1622196688 -0.2788994397
C 14.8328748426 2.87529274 -0.2907756500
C 2.4829331418 4.3021201961 -0.3382911683
C 3.717431714 5.0157486945 -0.3766183182
C 4.9526093421 4.3033592943 -0.3533804336
C 6.1872108543 5.0156017671 -0.3907880478
C 7.422185274 4.3026923831 -0.3642883594
C 8.6557411155 5.0157386098 -0.3928868112
C 9.8909751034 4.302937941 -0.3457389930
C 11.1275854529 5.015697895 -0.3579533966
C 12.3623604313 4.3023771291 -0.3237261436
C 13.597120578 5.0141064472 -0.3348867481
C 14.8329905601 4.301575906 -0.3201313833
C 16.0675126542 5.0140131308 -0.3437006988
C 3.7185800607 6.4407355012 -0.4170759882
C 4.953299275 7.152226619 -0.4408513391
C 6.1874901201 6.4409074342 -0.4395170416
C 7.4230988018 7.152022377 -0.4434466331
C 8.6571696885 6.4408718013 -0.4461697447
C 9.8920579997 7.1523362081 -0.4386344342
C 11.126871351 6.441211626 -0.3990274189
C 12.3619306331 7.1528115338 -0.3746355000
C 13.5971666005 6.4402751149 -0.3550455534
C 14.8332991295 7.152849748 -0.3535053739
C 16.0684612212 6.4404830324 -0.3622805238
C 17.3032690546 7.1519893809 -0.3843060445
C 4.9545624693 8.5779760438 -0.3980135287
C 6.1881468435 9.2905021268 -0.3758251127
C 7.422989498 8.577391653 -0.4034810558
C 8.6578779529 9.2897700004 -0.3705353485
C 9.8934205635 8.577430053 -0.4011790626
C 11.1276082121 9.2912805917 -0.3600352861
C 12.3628838205 8.5794296322 -0.3607922457
C 13.5971304963 9.2916420208 -0.3324576859
C 14.833002133 8.5790047591 -0.3401024324
C 16.0679007488 9.2911825696 -0.3272235789
C 17.3026514561 8.5777409928 -0.3554846009
C 18.5394619715 9.2906058806 -0.3498683311
C 6.1881440677 10.7159077126 -0.3195003067
C 7.4231705681 11.4296808799 -0.2974576505
C 8.6580244084 10.7175700741 -0.3168946610
C 9.8921855204 11.4301007257 -0.2980170049
C 11.1277067933 10.7173938135 -0.3141967515
C 12.3621863567 11.4305908551 -0.2908778414
C 13.5973782535 10.7179290653 -0.3003277896
C 14.8328390942 11.4309485539 -0.2833309357
C 16.0679704878 10.7181011918 -0.2952975827
C 17.3024865292 11.4304669031 -0.2838244332
C 18.5386643741 10.7174711287 -0.3048833918
C 19.7734743994 11.4297513665 -0.2944266376
Ti 6.9911893548 6.9820967223 5.9678710376
Ti 9.1398570136 5.531040095 3.4748144556
Ti 9.1880812862 5.6534249635 8.4704099001
Ti 4.8678200022 8.3862372073 8.4607687182
Ti 4.768996141 8.3160695985 3.4565886028
Ti 8.4354962434 8.4356390138 8.6547888015
Ti 8.3647703292 8.3179738717 3.1877887471
Ti 5.5947703493 5.6024515074 8.7631614945
Ti 5.5672239128 5.5395302985 3.2514069567
Ti 7.9518407613 3.5943796141 5.9962634108
Ti 6.0133376447 10.3744527358 5.8803019604
Ti 8.8512707065 10.0177623962 5.8772560276
Ti 5.1091842087 3.9823833344 5.9904492708
Ti 10.1843711145 6.8808290066 5.9276247823
Ti 3.8014718521 7.0796659094 5.9763803497
O 4.5893845433 6.8198247164 2.3272521913
O 4.682131729 6.9712611254 9.6458389763
O 9.3104686864 7.1389898053 9.6273232187
O 9.3103427665 6.9824229659 2.3100975289
O 7.2755429255 5.378776251 9.1616307979
O 7.232404384 5.2964822702 2.7800701490
O 6.7572928012 8.665066257 9.0750225553
O 6.6722885708 8.5009448531 2.7778800220
O 6.3502603458 2.6316129867 6.0199931523
O 7.6031041709 11.3737475507 5.8401754927
O 8.8013682223 3.8550896959 4.4477704641
O 8.882981032 4.0057270467 7.4861000134
O 5.1422743257 10.0300247083 7.3999735109
O 5.1363315277 10.0200837342 4.3581035491
O 3.5586115681 5.3750461463 6.0136925500
O 10.4224147311 8.5809517791 5.8381423132
O 5.5127947303 6.9891915077 4.7042529528
O 5.6002400123 6.9835746297 7.3031640193
O 8.4615815876 6.9827431745 7.2310713545
O 8.4192330966 6.9052527468 4.6452342418
O 7.2633337249 8.8992387638 5.9218351122
O 6.7240264612 5.0662161579 5.9284537365
O 4.8640115821 4.0974490626 4.0863963880
O 4.9115896485 4.1736357832 7.8724764511
O 9.1232526012 9.8637976591 7.7572652634
O 9.0706029147 9.784792493 3.9847217395
O 3.2482411736 8.0177155372 4.4495227216
O 3.3314492385 8.0230860075 7.4956187799
O 10.6850522065 5.8567693695 4.4447135268
O 10.7051207577 6.0140754024 7.5000156022
