76
i =       29, E =      -516.4788143706
C -0.0163266436 0.0130244482 -0.0938116818
C 1.2190911192 0.7274089619 -0.0964152019
C 2.4540487418 0.015126241 -0.0804136784
C 3.6881412058 0.7266423905 -0.0936636962
C 4.9235269045 0.0127244649 -0.0876194732
C 6.1589393943 0.7249393717 -0.0990402346
C 7.3905975299 0.0147116765 -0.0987418136
C 8.6291877599 0.7334928378 -0.1037900125
C 9.8634082227 0.0169335329 -0.1040753885
C 11.0978837125 0.7319456607 -0.1055032351
C 12.3358684773 0.0141783994 -0.1035227540
C 13.5676393577 0.7246538563 -0.1037455964
C 1.219982465 2.1514583801 -0.1081804409
C 2.4535953346 2.8636765395 -0.1102912894
C 3.6879691946 2.1520919734 -0.1072705697
C 4.9232944074 2.8670046413 -0.1104057208
C 6.159102959 2.154259125 -0.1075847446
C 7.3920491082 2.8661784769 -0.1086125374
C 8.6277400803 2.1562370821 -0.1017797710
C 9.8639218265 2.877655925 -0.0903414168
C 11.0993874759 2.1557614589 -0.1000361656
C 12.3348184673 2.8667021434 -0.1025634229
C 13.5687614204 2.1536200262 -0.1080362423
C 14.8042462764 2.865448222 -0.1093591311
C 2.4540228094 4.2904964849 -0.1133841858
C 3.6891573648 5.0032013782 -0.1133133099
C 4.9222945619 4.2890472099 -0.1120303346
C 6.1571123451 5.0012882329 -0.1014000182
C 7.3872683815 4.2909444762 -0.1002075730
C 8.6205326079 5.0103428533 -0.0440369416
C 9.8661985592 4.2894030992 -0.0415235655
C 11.1062202411 5.0108098464 -0.0164960209
C 12.338577548 4.2915207152 -0.0808594654
C 13.5696037214 5.0012490452 -0.0833350506
C 14.8052227069 4.2892200696 -0.1050649579
C 16.0390707722 5.0041606447 -0.1093965413
C 3.6880868097 6.4283474197 -0.1099979436
C 4.9223855336 7.1423172142 -0.0986194002
C 6.1569318959 6.4251752803 -0.0868773311
C 7.3917051122 7.1330317856 -0.0127883695
C 8.6035813641 6.4158172601 0.0530116731
C 9.8543994512 7.1264982746 0.5096712975
C 11.118699662 6.4138619791 0.0985922081
C 12.3312162379 7.132461813 0.0319615007
C 13.5686263776 6.4266520032 -0.0562744614
C 14.8039938076 7.1425377759 -0.0826405508
C 16.0387482538 6.4286418544 -0.1047196237
C 17.2731413938 7.1425295664 -0.1076816770
C 4.9246077149 8.5643538603 -0.0861815588
C 6.1693515435 9.2742521031 -0.0496561047
C 7.3897872766 8.5687654124 0.0128928142
C 8.6364165635 9.2847008926 0.0494210956
C 9.8610052644 8.5928544205 0.1531714896
C 11.0874578392 9.2840400983 0.0673215931
C 12.3349409575 8.5682338151 0.0456282163
C 13.5552679347 9.2738185538 -0.0264768962
C 14.8016157365 8.5650186921 -0.0701067681
C 16.0343663847 9.2817717371 -0.0937405242
C 17.2734489581 8.5670741906 -0.1042358690
C 18.5123480995 9.2807110826 -0.1001320197
C 6.1618099744 10.7099220925 -0.0716956993
C 7.3937186559 11.4224474921 -0.0702724118
C 8.6312931207 10.7093657551 -0.0278124375
C 9.8627484839 11.4215572386 -0.0391772432
C 11.0945048433 10.7091036437 -0.0165131687
C 12.3327355532 11.4233277938 -0.0577274116
C 13.5647044347 10.7098023889 -0.0569826917
C 14.7995905735 11.4200785573 -0.0877309936
C 16.0372967158 10.7073668097 -0.0951613459
C 17.2730618831 11.4210568311 -0.1024772422
C 18.509197172 10.707526874 -0.0997318623
C 19.7467857197 11.4207005887 -0.0954443793
O 9.8117962698 7.0461418583 1.9428338808
Ti 9.0087596309 5.5127700397 2.9444551542
O 7.3293543286 5.3015314495 3.0521285928
O 9.815401801 4.0178055667 2.8697478162
