119
i =      129, E =     -1783.2683790193
C 0.0143339805 0.0137222122 -0.2020560974
C 1.2479809769 0.7269597027 -0.1873217485
C 2.4838339272 0.0134370883 -0.1973183201
C 3.71915043 0.7287814118 -0.1816259178
C 4.953524041 0.0151621146 -0.1802667170
C 6.1902927891 0.7284476066 -0.1761442614
C 7.4245265131 0.0155802891 -0.1756236049
C 8.6587798699 0.7281018754 -0.1824424926
C 9.8955396126 0.0147649737 -0.1883801680
C 11.1304872252 0.7284702828 -0.1900005820
C 12.3648711038 0.0128882439 -0.2013922614
C 13.6007057689 0.726720648 -0.1872431935
C 1.2491961873 2.1543896382 -0.1731290478
C 2.4857452642 2.8680134623 -0.1738413477
C 3.7197356577 2.1554936463 -0.1769724452
C 4.953835319 2.8686747591 -0.1887254017
C 6.1895646976 2.1558006787 -0.1904040595
C 7.4246888266 2.8704702454 -0.2181556415
C 8.6590419844 2.1555499714 -0.2049628871
C 9.8949765328 2.868645598 -0.2212539784
C 11.1291709953 2.1552824858 -0.1958745200
C 12.3630723018 2.867626557 -0.1933465694
C 13.5991678004 2.1538716571 -0.1784015995
C 14.8344308342 2.8685422063 -0.1739035975
C 2.4854643867 4.295275335 -0.1802237226
C 3.7204585464 5.0095457266 -0.2015441760
C 4.9557029245 4.2964580872 -0.2112565798
C 6.1910104941 5.0089383828 -0.2590536035
C 7.4250362733 4.2962588531 -0.2677543223
C 8.6577579074 5.0079721899 -0.3135418180
C 9.8922571678 4.2957832483 -0.2719733370
C 11.1282418184 5.0092611404 -0.2645975537
C 12.3625701749 4.2952351148 -0.2158553332
C 13.5998471455 5.0073267 -0.1997472752
C 14.834364157 4.2950207682 -0.1791489832
C 16.0689576128 5.0078117156 -0.1811075797
C 3.7207380906 6.4359643748 -0.2299022932
C 4.9550030976 7.1477581272 -0.2749462545
C 6.1909446379 6.4352050899 -0.2959519533
C 7.4249134966 7.147805665 -0.3495684265
C 8.6581293751 6.4342979766 -0.3586256516
C 9.8940642635 7.1465776804 -0.3446171892
C 11.1269717992 6.4349312301 -0.2920663451
C 12.3614536789 7.1457702081 -0.2480967700
C 13.5984998551 6.4341397378 -0.2105256393
C 14.8344652948 7.1475143569 -0.1979314320
C 16.0701738197 6.4350110905 -0.1960165321
C 17.3061333814 7.1481847922 -0.2252708603
C 4.9550319321 8.5740992028 -0.2944684261
C 6.1915824529 9.2842419538 -0.3057986191
C 7.424253901 8.5727868916 -0.3422136565
C 8.6578830096 9.2841798753 -0.3323175077
C 9.8924963057 8.57170233 -0.3239726487
C 11.1275514241 9.2850145913 -0.2632704277
C 12.3621458847 8.5727049338 -0.2359086615
C 13.5999971605 9.2845353436 -0.2001196317
C 14.8350773181 8.5730931917 -0.1996889798
C 16.069970982 9.2842725477 -0.2139386390
C 17.306242199 8.5736368169 -0.2475403409
C 18.540861254 9.2858710946 -0.2770533164
C 6.1903194568 10.7089987724 -0.2682083493
C 7.4246196262 11.4220200391 -0.2505391341
C 8.6588403441 10.708385886 -0.2786250679
C 9.8940559144 11.42191103 -0.2348386845
C 11.1281812563 10.7102249539 -0.2279024630
C 12.3621231375 11.4225010395 -0.1922435304
C 13.599076526 10.7104721454 -0.1863192623
C 14.8350517272 11.4237165905 -0.1787876611
C 16.0698170339 10.7097357215 -0.1972470353
C 17.3076979326 11.4219795998 -0.2063017053
C 18.5414484486 10.7102330748 -0.2492969431
C 19.7745735129 11.4219657855 -0.2401531673
O 8.9916166776 6.4142301682 2.3927915358
H 9.3912832948 5.6853193224 2.9009670630
Ti 5.8393659244 9.1310064972 6.1045231511
Ti 8.1083480281 7.636321162 3.4301576269
Ti 8.0236823562 7.7766484261 8.5653342326
Ti 3.635882671 10.5090587972 8.5866545760
Ti 3.6649996153 10.5695641149 3.6162046132
Ti 7.2488288562 10.5424086011 8.8460103274
Ti 7.1602209008 10.5060666017 3.4419745782
Ti 4.4240822153 7.7622706806 8.8658083285
Ti 4.4551693695 7.790419181 3.3720983519
Ti 6.7696571366 5.7383055108 6.1789033434
Ti 4.8367395687 12.570711041 6.0760159433
Ti 7.6685283925 12.1571664279 6.0638875275
Ti 3.9416474797 6.147403201 6.0858399941
Ti 8.9589598193 9.0561331341 6.0057157913
Ti 2.6338779401 9.2526738229 6.0890522456
O 3.3935020545 9.0565790427 2.4961455146
O 3.4795216552 9.0760000416 9.7952513307
O 8.2022525239 9.2240512409 9.7366998753
O 8.181003528 9.3813429558 2.4856516914
O 6.1080457324 7.5438481486 9.2593295917
O 6.1167692044 7.5456073675 2.8657758966
O 5.549048844 10.7498005327 9.1816541356
O 5.4725628584 10.750694109 2.8684456470
O 5.1419889234 4.7565041254 6.1060858965
O 6.4399996494 13.5435026809 6.1093607534
O 7.6439932996 6.1785158778 4.7264871460
O 7.6845476777 6.0866813013 7.6836189208
O 3.974420672 12.1905530781 7.5896143294
O 3.9402810497 12.2725801312 4.5398699238
O 2.3988503033 7.5393002292 6.0232438452
O 9.2333228723 10.7691957158 6.0168896491
O 4.3964720885 9.2199951208 4.8173593661
O 4.3554029637 9.1485693951 7.4032091670
O 7.2269107964 9.1468700722 7.4063036392
O 7.1853143691 9.0687590619 4.8195927986
O 6.0297079213 11.069369153 6.0215964676
O 5.5540067375 7.2326498883 6.1119020939
O 3.7571464542 6.334926859 4.1681422831
O 3.745209346 6.3372920351 7.9644815046
O 7.9192713547 11.9568858628 7.9529060640
O 7.865966415 12.0256965896 4.1711440300
O 2.1291249464 10.2636796796 4.6265650736
O 2.0958855635 10.1873464734 7.6031781369
O 9.5401297388 8.178440229 4.5327565421
O 9.4915109933 8.096327642 7.5147528498
