83
i =       65, E =      -698.0187289108
C 0.0032776579 -0.0004150605 -0.2190326563
C 1.2401988956 0.711867592 -0.2007166800
C 2.4758279735 -0.0032473212 -0.1749169621
C 3.7113833812 0.7102946849 -0.1728986378
C 4.9486137331 -0.0023346163 -0.1714508150
C 6.1832786472 0.7113353942 -0.1965259840
C 7.4170511722 -0.0005576961 -0.2107856358
C 8.6529770427 0.7127773687 -0.2754994412
C 9.8871382825 -0.000755221 -0.2769266637
C 11.1207160661 0.7133997002 -0.3372906874
C 12.3562518281 -1.78478e-05 -0.2805092801
C 13.5903782329 0.7120894083 -0.2803282045
C 1.2397787853 2.1371792378 -0.2218148274
C 2.4752263347 2.8485548462 -0.1998371772
C 3.7103737539 2.1369431335 -0.1845563652
C 4.9485074805 2.8492366006 -0.2088091419
C 6.184043107 2.136719159 -0.2292382991
C 7.4177903797 2.8508137834 -0.3103759056
C 8.6541124856 2.1381030043 -0.3494909538
C 9.8866509066 2.8485443885 -0.4495113933
C 11.1199315456 2.1354657909 -0.4368517293
C 12.3566829083 2.8488530078 -0.4422258458
C 13.5905092809 2.1363725243 -0.3436849980
C 14.8238513247 2.8491529189 -0.2929068826
C 2.4748765467 4.273829603 -0.2108559763
C 3.7109538015 4.9869983765 -0.2070615033
C 4.9489596546 4.2752884353 -0.2271492241
C 6.1833455741 4.9874590744 -0.2800031307
C 7.4164878504 4.2763053841 -0.3491337763
C 8.6505840912 4.9885832073 -0.4226545225
C 9.8859976711 4.2744601894 -0.4830918995
C 11.1197027058 4.9872214086 -0.4839501799
C 12.3577570601 4.2736627288 -0.4675554478
C 13.5908839378 4.9863998315 -0.3899444782
C 14.8224764203 4.2754071095 -0.3149275589
C 16.0587912955 4.9870512931 -0.2504192562
C 3.7099055808 6.4138205652 -0.2040624839
C 4.9476118024 7.1264713406 -0.2162985329
C 6.1825400407 6.4126443155 -0.2668994596
C 7.4181629592 7.1258145414 -0.2980826981
C 8.6513115669 6.4138072947 -0.3774639094
C 9.8860547314 7.1256542113 -0.3638085504
C 11.118985059 6.413575029 -0.4133070558
C 12.3544649402 7.1250426745 -0.3446461953
C 13.5897906157 6.4111188582 -0.3423163660
C 14.8222491849 7.1242306051 -0.2651823273
C 16.0599463036 6.4126906138 -0.2388387658
C 17.2948932744 7.1257583952 -0.2022921047
C 4.9477053338 8.5533624053 -0.2003444870
C 6.1824601344 9.2661188171 -0.2088272765
C 7.4162503127 8.5527199847 -0.2467393338
C 8.6524159037 9.2653624979 -0.2362224934
C 9.8863930814 8.5499574483 -0.2760525506
C 11.120343618 9.2634930881 -0.2350586406
C 12.3555245108 8.5495285453 -0.2594411759
C 13.5896564859 9.2638067401 -0.2124540227
C 14.8231836983 8.5517081688 -0.2203105926
C 16.0598499272 9.2659346564 -0.1949696759
C 17.2956020335 8.5519518715 -0.1915412690
C 18.5308991979 9.2670408828 -0.1889114501
C 6.1811986282 10.6929006956 -0.2027849720
C 7.4158234159 11.4067731978 -0.1991920101
C 8.6522688223 10.6919919242 -0.1953856093
C 9.886487905 11.4047307023 -0.1783351540
C 11.1199927824 10.6908385245 -0.1840034741
C 12.3564214094 11.4049265294 -0.1726723004
C 13.5911259179 10.690345961 -0.1819838480
C 14.8262230985 11.4067023907 -0.1882490857
C 16.0623003261 10.6934693314 -0.1936836569
C 17.2965788888 11.4080242847 -0.2174889011
C 18.5298744373 10.694535128 -0.2059269502
C 19.7661186207 11.4090545391 -0.2220592284
O 10.5986438517 7.6213968421 3.4295664408
H 11.1221226876 8.2390817374 3.9621042063
Ti 10.6579629143 5.7958174516 3.1112704059
O 9.2587194601 4.974816679 2.3121285278
O 12.139988692 5.2938966741 2.2243101910
Ti 12.3428727017 3.5577696564 3.0202382597
O 10.8477136963 4.3239085286 4.2637367693
O 13.9001705133 3.0419379878 3.2429749835
Ti 9.5389922743 3.2223269081 3.0781109313
O 11.0626500892 2.3334361795 2.4077319968
O 8.1950809185 2.3227156296 3.4279601069
