98
i =      165, E =     -1150.1812392665
C -0.0262273517 0.0405103964 -0.2080665641
C 1.2099267286 0.7531865884 -0.1943312717
C 2.4452995709 0.039930565 -0.2055942580
C 3.6787426835 0.7532143179 -0.1868024515
C 4.9155682359 0.0398138743 -0.1977157104
C 6.1512482972 0.7556304226 -0.1913757286
C 7.3851108586 0.0424890187 -0.1914413078
C 8.6210165055 0.7563456867 -0.2114146774
C 9.8551886332 0.0433913951 -0.1966702044
C 11.0875547085 0.7568470387 -0.2250735304
C 12.3237615389 0.0420709722 -0.2062594659
C 13.5593102029 0.7558780443 -0.2137515771
C 1.208517349 2.1806573811 -0.1911625183
C 2.4453814222 2.8940760989 -0.1799167767
C 3.680815674 2.1811560723 -0.1757713960
C 4.9176436296 2.8939903716 -0.1984966834
C 6.1530287837 2.1825872687 -0.2131886610
C 7.3855128418 2.8941871881 -0.2848422440
C 8.6217027374 2.1820826661 -0.2822868451
C 9.8554654807 2.8942571327 -0.3564971635
C 11.0879331848 2.1818780458 -0.3056113091
C 12.3234616004 2.8935443724 -0.3322187688
C 13.5575094729 2.1824738145 -0.2550427724
C 14.7911213292 2.8936432734 -0.2356613533
C 2.4450266566 4.3205169873 -0.1939113434
C 3.6797719396 5.0320159219 -0.2095398715
C 4.9186184024 4.3202981969 -0.2316280412
C 6.1524891347 5.032658598 -0.3188622093
C 7.387112962 4.319544888 -0.3683290444
C 8.6195981005 5.0284837379 -0.4839371701
C 9.8551711139 4.3171206134 -0.4704033513
C 11.0877362202 5.0279233872 -0.5091209384
C 12.3222425914 4.3174058684 -0.4177620807
C 13.5583811406 5.0317369296 -0.3645589979
C 14.7909450257 4.3205128185 -0.2716945936
C 16.0284550098 5.0316525209 -0.2296229488
C 3.6805946976 6.4580275226 -0.2257916796
C 4.9174563499 7.1697221218 -0.2780947913
C 6.1520086443 6.4585711988 -0.3561123687
C 7.3818748187 7.1696699508 -0.4484003035
C 8.6182677008 6.4558877858 -0.5251081064
C 9.8554875488 7.1697704777 -0.5467673129
C 11.0888880502 6.4569022426 -0.5375108304
C 12.3246387421 7.1696036811 -0.4570588799
C 13.5580493649 6.458020166 -0.3794592800
C 14.7898275877 7.1688572614 -0.2915080006
C 16.0278608875 6.4571011988 -0.2383328017
C 17.2648989589 7.170573191 -0.2127914116
C 4.9158157797 8.5955873124 -0.2621781825
C 6.1513561936 9.3084379975 -0.2973291977
C 7.3834899054 8.5943107502 -0.3889585221
C 8.6203410528 9.3077541804 -0.3870739418
C 9.8548551733 8.5953913658 -0.4553693209
C 11.0872373336 9.3078321675 -0.3874929622
C 12.3244524466 8.5932504475 -0.3897591383
C 13.558602789 9.3084191755 -0.2957289488
C 14.7923748196 8.5961280672 -0.2640461309
C 16.0287919053 9.3090062008 -0.2079927522
C 17.2647749109 8.5970071128 -0.2035455231
C 18.498720457 9.3091752041 -0.2085831813
C 6.1503735074 10.7351463588 -0.2459792932
C 7.3833928305 11.4474745279 -0.2457196088
C 8.6200094575 10.7323489301 -0.2966156522
C 9.8553508797 11.4477648658 -0.2652501323
C 11.0890850998 10.7335725353 -0.2958606816
C 12.324774288 11.4475789498 -0.2420877751
C 13.559412525 10.7348604645 -0.2416899438
C 14.7924816159 11.4487400798 -0.1972193852
C 16.0292562174 10.735871306 -0.1888549194
C 17.265221828 11.4509891861 -0.1790852180
C 18.4993979827 10.7364138526 -0.1915211855
C 19.7355703373 11.4488794313 -0.2032832888
O 8.5917133042 6.4948169083 2.1277132407
H 9.5819118957 6.5792193597 2.1077561666
Ti 6.0034421945 3.4900454898 4.8563287188
O 4.3577711359 3.3651926371 5.0004376974
O 6.8881346304 1.8494369919 4.1615014691
O 6.4448545896 4.7337021241 3.4364123344
O 6.9433649126 4.3128536817 6.3913494231
Ti 8.6625638774 2.0043919365 3.9505899726
Ti 8.739417526 4.3838030047 6.2482202415
Ti 8.1857736841 5.0577855389 3.2043663481
O 10.4166467028 4.5738577429 7.2318098199
O 11.49868566 5.938517855 2.1308991145
O 10.2318178602 0.871068052 3.7856774133
Ti 11.7864136636 1.7875401118 4.0311983786
Ti 11.9132703446 4.2253888326 6.2736405390
Ti 12.2067697586 4.8310762902 3.1754628996
O 13.7514237773 1.6923758521 4.2546305968
Ti 14.5597477978 3.2360010764 4.6852617188
O 13.8872848577 3.8525887909 6.2038337963
O 14.1251724993 4.4103651714 3.4260419578
O 8.992359315 2.7330057529 5.5614521552
O 8.8793973448 3.3813373102 2.7736110267
O 11.5754555594 2.5657558746 5.6447489508
O 11.679320365 3.0557805974 2.7837413250
O 8.9743810707 5.4540813616 4.8134528999
O 11.8148133141 5.3662061304 4.9135278412
